ITEM: TIMESTEP
1
ITEM: NUMBER OF ATOMS
256
ITEM: BOX BOUNDS pp pp pp
0.0 2.0
0.0 2.0
0.0 2.0
ITEM: ATOMS id x y z radius
1 0.44591550400339847 0.43591700110815285 1.8462639862806371 0.18908293665570056
2 1.7539142216532373 0.4277952794575922 1.6629921027754577 0.14570418799940862
3 1.5334469381092668 1.9347404798328218 0.9938764017141867 0.1404225146136879
4 0.3532514579766118 1.7067281149799756 1.561234609370469 0.21413116082178024
5 0.6184122644599613 0.14129660926089282 1.837160690409894 0.15063141703196234
6 0.24993376756977775 0.08759362095841236 1.2261823608830973 0.22163974768162956
7 0.3049764307231008 1.2125159739524358 1.2335096247284936 0.08332868164505858
8 1.4390672202554686 1.0925675037590452 0.7972948700601197 0.13019445332205207
9 1.4472103512637977 1.0783695193585294 0.5665171741797431 0.09578056944361206
10 1.5122079427584916 1.1435169490569823 1.665498991244324 0.07847462608473073
11 0.6888364661733207 1.1064408199021873 0.771575949767753 0.14146210884687851
12 1.3052645887287033 1.8491123819524842 1.4902904643010033 0.21886620486318756
13 1.6381879341179162 1.4310783492490633 0.0037114755166192054 0.21852230174361403
14 1.346866345033739 1.6222419842003193 0.10774663981158851 0.14511916844915732
15 0.3116277354855644 0.9251139889941811 0.6902875167112046 0.13873509438468282
16 1.8132022174173366 0.14699969654176012 1.16793791464397 0.08393545626265211
17 1.0338152880544964 0.1405020698120569 1.7655840028298269 0.09675735399350849
18 1.7475262429961986 1.0412198730375657 0.9271986415235007 0.20616211165133433
19 0.6885318989216221 0.7964995866994228 1.4147062114807565 0.19661453186332933
20 0.6891950354084289 1.362702145148596 0.2844620051460248 0.17991729769418913
21 0.1598994143555836 1.229775079638269 0.33903122883524184 0.13603905510050887
22 0.2550066095804708 0.9376945750410882 0.3587339037318567 0.17176703664700166
23 0.9077932128646184 1.0643792174359028 0.5175591368938237 0.19574968510439827
24 1.8334325953848039 0.3853240536389626 0.29113027819191306 0.18052400401549348
25 0.09218564652573648 0.7927852174170602 1.9638326668582888 0.21314654364833457
26 1.390290746196517 1.3910138581054075 0.22787689927068666 0.11480432766375716
27 1.5054807937714507 0.46961199199382553 0.42518800068164847 0.1732998507550125
28 1.4574678061942916 1.235723844328788 1.8233153282972483 0.09980930993906352
29 0.0783093395687358 0.1592316976770375 1.9851082421932529 0.10779803321680456
30 1.040025341472946 0.6942205895402932 0.4405117864112557 0.20425584851939443
31 0.9930262672788683 0.8454108420308153 1.2087941473265968 0.17420091755592232
32 0.1331572311201552 0.6768603993638332 0.7049747665921465 0.09490044165105142
33 0.3119945878701366 1.2425867157942776 1.4312634450026427 0.11557145873591011
34 0.8766218747159762 1.665747116729554 0.6089074444291062 0.2012132255189067
35 0.03505272961844031 0.8813732302026823 0.5960982769582016 0.15669429501994267
36 0.7671139113295226 0.009107501932871374 0.7390516870955385 0.1819507231345015
37 1.5036823308622544 1.3777998046068285 0.9964816027528218 0.12787841983057663
38 1.2279924323833782 1.8025492988251652 1.0823208652481784 0.19895947168875472
39 0.09128317756717877 1.2480384719453685 1.0716708643870663 0.1853558584159924
40 1.2882892536913717 0.18449837035936112 0.5929381117674333 0.22242938223221884
41 1.4464150304783854 1.9272844941819185 0.03959684505848141 0.1829132509759079
42 0.09030826083379218 1.222504385942277 0.05372012009155934 0.1577265217228967
43 0.6456873894807528 0.2180229768513117 0.2287409183102088 0.13039311301822626
44 1.7119589579141892 0.748729803523643 0.16990351448575605 0.2213658943982206
45 1.7953392878222163 1.4425703556894134 0.4572934702987631 0.10497932014942982
46 0.04721798618264433 0.426891959913847 0.6224591760963911 0.15103205726103947
47 0.31108379094878447 0.11921795428144806 1.6694826763440778 0.19774010656155236
48 1.3522555110206844 0.9570357920831835 1.5766677701626621 0.1268208429498932
49 1.1671492006814703 1.4488021170303933 1.8408303535278634 0.15395030209293792
50 0.13860160957951306 0.6164424722194471 1.1822261521153494 0.16755417131422912
51 0.5824699147912418 0.8385476138075069 0.5053383941370732 0.20046300890716
52 1.7749831802564935 1.7390600205548847 0.9901028025567102 0.1588422997972088
53 1.0259941708074727 0.7032691511975991 0.900231163445661 0.14743105715539825
54 0.04396635028226571 0.3402898769963185 0.9612428427596497 0.1984446737480238
55 1.1006791745107323 1.4254509478364195 0.9939720614130141 0.20873812514417273
56 0.30809818669478056 0.35172208912067493 0.40544282873746373 0.19622975303287227
57 0.9973287792855146 0.8293792787910361 1.519723598915728 0.13115752927970922
58 1.1677753422596056 0.30388350721011015 0.277759009864466 0.10846768812364749
59 1.433183215451728 0.24925770272429823 0.17608575295813214 0.16704538933407306
60 1.1401014337316537 1.1618844916772926 1.9150370177155278 0.14363279230018297
61 0.5997068174079255 0.5252893446163701 1.5784339528501337 0.1323614248080299
62 0.2519752922304828 0.06801514237525938 0.45918126853517466 0.09792534143073374
63 1.8668710678664358 1.2943396264843101 0.2627373659273608 0.14985630680688172
64 1.4175429368965307 0.5653538848227587 1.5706286581032742 0.16860118824221165
65 0.10713433024129719 1.4073733050892852 1.458143435934259 0.14870987261025068
66 1.4438765131549023 0.937462076406938 1.8959378144522048 0.20588694614512545
67 1.8998645729465016 0.8630675870458551 1.1319828713921942 0.09374365150463373
68 1.9441482939888066 0.0356367061237506 1.0382734611028952 0.13126863803956643
69 1.316996625214666 0.7068735736038948 1.3096331687799656 0.14142569405238842
70 1.9263790833708725 0.3468059201973454 1.3584496093561331 0.2135304557979064
71 1.9649922348492577 1.0116702461559934 0.23999689077444056 0.15021959087265094
72 0.12543470178861282 0.4227278765527202 0.08635344618583178 0.17808133834188025
73 0.7996984022909308 1.2444971080413958 1.9578085377959022 0.1845450724948232
74 0.9724082237615331 1.617566061171609 1.3383353702839096 0.20589419220663183
75 1.4809667253630194 1.655656267148839 0.836232411691081 0.18331407146314727
76 1.0336919565061147 0.3662058655233927 1.1492626220447884 0.09363080623887576
77 1.6064768372578528 1.340277263440697 0.6676699259473088 0.19567143051599917
78 1.5954933846819428 1.1028225640800928 0.1762850088670547 0.15142966639910727
79 1.9702140548407905 1.816574680026019 1.2406504197958566 0.1681040747630505
80 1.0861229616338786 0.8576561166599515 1.938199765401016 0.1630881854871034
81 0.23879506075077822 1.577699662611985 1.190426831303524 0.1948272882931303
82 1.6671131921752373 0.2865325204684191 1.1609171801189309 0.11793684910834669
83 1.0342348200945874 1.9637330451558304 0.6529576326294406 0.09235857018332339
84 1.7010473761743803 1.4882051386391038 0.9088090478555949 0.10259261097441387
85 1.333914896237677 0.20295676658327017 1.1773092450229 0.22597405290535097
86 0.07302461298413712 0.6398118904529795 0.3683896372135327 0.17743883938360033
87 0.8076748483149162 0.9412066194904825 1.7469747282721972 0.18487882292692615
88 1.133451026648598 1.1673189206393804 1.2917214969311364 0.186660360089529
89 0.8587949655261266 1.0879356268209013 1.2369935924163056 0.10441799172470588
90 0.306953159867817 1.5539705614424388 1.85670152600365 0.11996083668947471
91 0.9311330142776746 0.2053132949410061 1.8897254556270702 0.0768037684167144
92 0.08007530073150933 0.4391249693840819 1.731199893636809 0.18033176135013565
93 0.7262859917769048 0.36735901618880656 0.7877961083758744 0.15678175010591636
94 0.7476608757290781 0.5222403156400927 1.1230319344483646 0.2052189187872342
95 1.6061607210821622 1.6927695488140349 0.3599870660471972 0.2234360267672737
96 1.3358818226148481 0.008982454798862146 1.7926385382174033 0.09681650352313632
97 1.2346121350600725 0.24499900972147923 1.583025780951176 0.19382886112669012
98 0.6415950540235368 1.7709522300159917 1.8051032174981825 0.1401296946299613
99 0.9671121196501393 1.8326077902651075 0.884566295850009 0.09790452383514035
100 1.1727113717047737 1.5447401317349048 1.5845224475050343 0.11973176226362194
101 1.8329506947351288 1.3505244778693821 0.9050702221851321 0.08783666307188855
102 0.7910134406390218 0.8543799411746982 0.15805846870160645 0.20493107929906143
103 1.9202100234115818 0.5223061255915135 1.126775039180438 0.07657791880456326
104 1.8518741636915763 1.1900409367364624 1.5368038311481687 0.19564249712596976
105 0.7560505802878862 1.7249018716684477 0.24108780279890657 0.19035783797389588
106 0.510985250652756 1.1310355860965398 1.6292582439535213 0.18649285070317742
107 1.009554007191969 0.40414761829278767 0.9024978237284341 0.15103316672089093
108 0.12858782212385686 1.4691043763314562 0.3717719912684959 0.09146168574648063
109 0.34991300954617693 1.600108924087999 0.5166405852143344 0.17599967019270624
110 0.7596880874305895 1.3442432077626654 0.6347947571885586 0.14187336326793543
111 1.711628982329098 1.4659794399361321 1.6338979505694202 0.12875310299779694
112 0.30706780372280784 1.4673112273796152 0.8426633010136707 0.1748617522720499
113 0.4608595378580635 1.7886172738671067 0.05168999231164294 0.16610945014211576
114 1.5145674532793305 0.81342693379284 0.7559297721030486 0.16191993186590703
115 0.38201775341864075 0.41363829935374974 1.0902007401887788 0.15548471805098643
116 1.5310832965034613 0.17760270457354035 1.813352550815039 0.15845279796878797
117 1.986202263404748 1.6603739714797985 0.526649252340001 0.1928058656620869
118 0.42288057729752 1.0445906856238651 0.9146895263076007 0.1289516933063819
119 1.065289251767466 1.942159753897446 1.7014574315207718 0.11405633083051242
120 1.124100305343166 0.556632051509296 1.7677516422064687 0.18492088472686155
121 0.7714312389936184 1.6344128811267924 0.9757011293355543 0.18164928906774144
122 1.374950783838711 0.40176676767215524 1.8046242365202112 0.1117475465745651
123 0.48384259061623985 1.0492289118157918 1.3093770617787992 0.14479486240869294
124 1.0055066024957768 1.7151247207285418 1.6550273415461318 0.12484982599277036
125 0.9700430061727402 0.3725286882004856 0.6058452192326108 0.14743904672305097
126 0.20135840825778278 1.8567435020691958 0.2780628713873872 0.1849202760589993
127 1.6068409836684385 0.6097193705596972 0.6299827384276717 0.09473904611074307
128 0.4114182690996789 0.5562458505291653 0.7527438533004422 0.2120442876342811
129 0.6331036410894356 0.27279390414049703 1.3764985035749 0.16840142440892283
130 1.712516506458299 0.17299522919531948 0.8972197460561763 0.1727316393663424
131 0.12490319122621969 0.8930717823197466 0.9576726807777478 0.18896482411745347
132 0.9953832988108975 1.0468322356965167 0.8986191097435864 0.1956408518069939
133 0.6821393715204715 0.4608713009521022 0.4424841643682419 0.19516819471408278
134 1.4757508532224584 1.2324268831704788 0.39241234453980567 0.12757306646116234
135 0.5592866309170529 0.27799765708880664 1.6335476869847747 0.09908322291273794
136 0.42981554525085536 0.6577688054950879 0.1735099740228815 0.20660092662439503
137 1.2326818009079956 0.9275026668766786 0.649315424824201 0.15812618280608287
138 0.044468754457262845 0.8732474103946897 1.6147511027885246 0.07717249019224343
139 1.0687492312864415 0.047546177417733926 1.4619208264833399 0.09102820903082033
140 1.870135865764102 0.17388585096933853 1.7980263879397125 0.1644754071495011
141 0.5489383083020193 1.8041512435615161 1.220858516682147 0.19039372783355918
142 0.8471674314963359 1.142054706661356 0.23178219876223696 0.09651502352336007
143 0.9219159230224933 1.299706947930346 1.592757671564664 0.20435911873590099
144 1.3237391254584978 0.4692647342507986 1.348626792477899 0.09073176279569722
145 1.8743563303810222 0.4139821563393173 1.940655409936897 0.11220890487029246
146 1.309841861176583 1.9700793108811128 0.31620813140051107 0.12816568686264243
147 0.29675208972653466 0.699135309174289 1.3787701642102255 0.07550812053496123
148 0.30079741824426365 1.3768399452859355 1.6581190316946788 0.1313399708390862
149 1.7371443901183614 0.3614530420393 0.6305235828987055 0.1546134736279627
150 1.3361070316001105 1.1805053832674517 1.0220062722798207 0.13215851437880177
151 0.6137699865187675 0.21111221823148493 0.5993755100496534 0.10757649666632019
152 0.5950653271876727 1.4067340778119632 1.3347490539077174 0.22558600597318698
153 0.017495075211871932 1.2547746207961368 0.668926184760787 0.22414789492032505
154 0.33947453652722864 0.13296908974319965 0.7549809077828811 0.21730878536094006
155 0.7716740442601175 1.5968435939158019 1.5914441616054884 0.1099404514548532
156 0.4067365788984884 1.2750795617417214 1.0577923671332703 0.1291051926416834
157 1.7336499921419637 0.7930536826397134 1.6140927077515426 0.2233671772954954
158 0.5769606532461755 1.4610444221435375 1.770194288546942 0.1783653162239501
159 0.45091186091856006 0.7810041471682115 1.1118268204297943 0.188663534538694
160 1.8136616431122674 1.076926543119994 1.9028505997100729 0.18938385390619225
161 1.5730260872348085 0.3054510959603765 1.4559449109509508 0.15522273557876837
162 0.6716811613014602 1.0853130051885305 0.3340967813756792 0.10235994398022348
163 1.194959447512784 0.24417201785867754 1.9443792406315743 0.16531636486758527
164 1.5442595117254163 1.724665559458161 1.1821780138991336 0.14170984901295566
165 1.4453212745961266 0.7966590830885072 0.4423248131135043 0.15967547892957631
166 0.9504983660757564 0.20306278928440852 1.3174207545374916 0.15103092369919868
167 1.719434957972365 1.8198289252682347 1.760311314568037 0.22216326972901407
168 0.4684696041267186 1.9833847602636927 1.4474933058566135 0.1063784402247926
169 1.210407501270776 1.797248917904667 0.20818581622411086 0.09847157397280652
170 1.9703130205305133 0.9325685300238612 1.7374450593132247 0.07776457982082081
171 1.72395565664283 1.0103983417014801 0.4938787876197249 0.1952566048180811
172 0.6338472898364228 1.9908564146717682 0.1330135202483115 0.10275439772311784
173 0.5743058739684416 0.7761101352204979 1.9100456621898416 0.11634627474618264
174 0.7456325699364704 0.622302452215856 1.7907876002962066 0.14294530854144616
175 1.3012854390306439 0.606388950107198 0.12362885415980575 0.21572660682431377
176 0.6220621238498759 0.16148370669680617 1.0406851782323656 0.1855506895354071
177 1.6682240908801689 1.9899727081742522 1.3439192148215044 0.19282752131181882
178 1.6081823628612624 1.6470850625121976 1.4533393877953151 0.1471112617181647
179 0.6099663176766189 1.3621596525136548 0.8827332282236031 0.14825320608657458
180 1.4358647976876595 1.55146026752962 1.6983455676466335 0.16706140524999302
181 0.8938226065211969 1.320619475453924 1.211168712423391 0.10899393564213854
182 0.7206159382007035 1.1150146079321823 1.4260959874183132 0.09944153132377409
183 1.0498215413859715 1.7248993212180712 0.33319652145841316 0.11751449643816038
184 0.11674791327542755 1.7954200417152457 0.877683822368683 0.2053050115914198
185 0.716647972107215 0.7990447909191063 0.8582076424303292 0.17911681573854618
186 0.1420722065018575 0.9801584957314204 1.353309094558171 0.2066381232979472
187 1.0592357873303841 1.4315661414681249 0.18685982578271934 0.20892533521083712
188 0.5732336686274744 0.4048782017908558 0.14784307897660573 0.08516873603992577
189 1.3042161200005562 0.8658390198269277 1.0256562202868493 0.18412495908946208
190 1.6232690947804918 0.1588725690078088 0.4214272977214624 0.15477627601686866
191 1.9747221800216406 1.5920572321437199 0.1558299398519724 0.18435425908567502
192 0.49168279433299616 1.76968678331702 0.7937312658999038 0.17844903909773155
193 0.43707151775905867 1.22271834533294 0.5510852255829679 0.21282898969997713
194 1.764142561895131 1.4278426693214221 1.2128612662223022 0.21374954037961194
195 0.625362673530428 1.5278333023903041 0.0502985553152911 0.11343329900635535
196 0.004200485936772772 1.4576139031771518 1.7924701223627615 0.20413301804449424
197 0.8433472327397304 0.3299206068553477 1.6623565211724112 0.19101543315142586
198 1.7756797888927334 0.6162699496290112 0.48558587000272974 0.12684580150547764
199 1.2246339493672915 1.0384843773237782 0.24805950054121295 0.22100992928981994
200 0.8784237263808278 1.588839792993617 1.8920360883174323 0.17099534052850157
201 1.6010593552553416 1.9432369469134594 0.6658036872949807 0.17189127248339517
202 0.927358626993808 0.0713994712386357 0.3694113582922435 0.21691839838494917
203 0.05847784550899901 0.6602037902190949 1.4867526562124027 0.14996555879014342
204 1.2522483799148623 1.7726693145321943 0.5625213749068448 0.19207953179687207
205 0.761385526165248 1.353217479857623 1.0732516922628221 0.08495481121469074
206 0.8832960368683709 0.43674675834308396 0.0756848139362064 0.2238625909609782
207 1.1418280600696362 1.9934540191317134 0.10164402016149356 0.13489374090756254
208 1.8316421708159625 0.010644941422957192 0.14554051180008115 0.2213941897820153
209 1.5310033053861754 1.0679462368958712 1.2969546158625038 0.22315681412325147
210 1.0669303730195012 0.09038722079181417 0.9003942138537573 0.16793698249972877
211 0.8632116937869766 1.949499654297864 1.9566020948025415 0.18227533800681556
212 1.6696509861553672 0.31925378444952773 0.0175839558713733 0.1261086277155372
213 0.26169392796242974 1.115574589367621 0.7954745179733269 0.08366070737519138
214 1.1745920313014688 0.5462829152734033 0.715689598330019 0.13591155854468617
215 1.1124079184400644 1.0207582990561124 1.6717162096895426 0.1389184825161491
216 0.9907217012777263 0.41266062021107164 0.37306563490596883 0.08408451013218432
217 1.4407181601713261 0.12586309066881896 0.8746678095791875 0.10291687347102481
218 0.3691013285300625 0.7689960697126738 1.6539222094684534 0.203137687790095
219 1.9861182530564685 0.002470885696391723 1.5287823307969957 0.17512252122635108
220 0.7821934544377707 1.948080989728355 1.5261501355910516 0.2189765791246108
221 1.294562953082275 1.2605686216250778 1.60516110355665 0.16949086083882284
222 1.2331436390038288 0.9178311120602556 1.3888498867282872 0.099006767249666
223 1.9056486665250416 1.6299121541771207 1.4947231570149107 0.1537103720279658
224 0.8777953346584952 0.601909222877412 0.7039791661919862 0.11855968295757303
225 0.36778289175662415 0.13774865251789312 0.07729114398354078 0.19612165104836535
226 1.3670517799623978 1.4656667112273178 1.2963597638077478 0.19223681713552468
227 0.6571541594019594 1.1228733335087702 1.0703836172271233 0.159467711857714
228 1.0426496668111294 0.529046317345626 1.3959386536883887 0.19670489521268403
229 1.2239192091404432 0.7619255325601787 1.5543155371875907 0.10773227403453992
230 1.1649740542406448 1.7690355367497843 1.9000011105058325 0.16759685703627927
231 0.529131731493668 1.9830890702670585 0.4207136056437415 0.19419522843289994
232 1.6594274628235077 0.6523991815114921 1.1968550075832494 0.22315254784993982
233 1.52942203956609 1.3096598783419255 1.6703954923444382 0.07845939837295782
234 0.3168167575006673 0.43762347999408896 1.4411520096154846 0.1940697010792359
235 1.1999257151997493 1.3521313631524567 0.5837765386170197 0.21961452860408762
236 1.9547460460586612 0.06803090943039927 0.5625105577619192 0.21675252956583807
237 0.3385272903125261 1.4593620098083846 0.16497046958219402 0.20295240492561167
238 1.2053810749984941 0.548448715171172 1.0861495799928782 0.15375705242695803
239 0.12806146708202254 1.835954281822102 1.8917351826874604 0.20615503316943729
240 0.13742982761128533 0.6132522483321194 0.8886506818779811 0.09906604525338028
241 0.8826993781266613 1.933960705125839 1.144718738230521 0.17572671686279354
242 1.8441006589068174 0.657759961736576 0.8090796953146572 0.20638513334221537
243 1.4727900591991978 0.4634125806671406 0.8602052185793709 0.20566068518788017
244 1.9003118243443238 1.5516349906325393 0.8147055435182388 0.12672185889104076
245 1.1110849930924724 1.9846076131950823 1.2814358882093 0.08185312341532101
246 1.3297775759913377 1.914028589668916 0.8252836708973805 0.09904906610397055
247 1.5803544569258317 0.5597008056241957 1.8712551316920112 0.15578468572591342
248 1.8288284479228232 1.9340611815763478 0.8240081458640705 0.10290577549740042
249 0.9800699391868891 1.0585017315406928 0.05400757241406891 0.0918285660343332
250 1.238208179562608 1.166832088531903 0.8232154110432315 0.08551513114799361
251 0.5934402367093964 1.7225337736833828 0.5340832990495755 0.09712412674050565
252 1.6400331302415196 1.3739462529642086 0.3266860620963256 0.09890355575934484
253 1.7602100212755947 0.4206477094860579 0.9975536895724615 0.09869646273045456
254 1.720377368249568 1.6725738025326067 0.6697924537479513 0.10734263361796188
255 0.43860830135486945 1.0654044897300585 0.030959292933675917 0.2250396007140635
256 0.16024948125123262 1.1091033396957597 1.7380670505873739 0.18138078372614727
